 Q-Chem 5.3, Q-Chem, Inc., Pleasanton, CA (2020)
 Q-Chem 5.3.1 for Intel X86 EM64T Linux

User input:
--------------------------------------------------------------
$molecule
-1 1
C         0.2923776196   -1.2054637110    0.0000000000
C        -1.0868923075   -1.1922796514    0.0000000000
C        -1.8120765977   -0.0000142811    0.0000000000
C        -1.0868882509    1.1922500200    0.0000000000
C         0.2923806541    1.2054280900    0.0000000000
C         1.0836444400   -0.0000198120    0.0000000000
O         2.3402385633   -0.0000201662    0.0000000000
H         0.8338161207   -2.1459753124    0.0000000000
H        -1.6223577772   -2.1387950339    0.0000000000
H        -2.8950538111   -0.0000126800    0.0000000000
H        -1.6223516672    2.1387665126    0.0000000000
H         0.8338250229    2.1459363137    0.0000000000
$end

$rem
BASIS  =  cc-pVTZ
GUI  =  2
JOB_TYPE  =  Frequency
METHOD  =  wB97XD
SCF_CONVERGENCE  =  8
$end
--------------------------------------------------------------

             Standard Nuclear Orientation (Angstroms)
    I     Atom           X                Y                Z
 ----------------------------------------------------------------
    1      C      -1.2054461359     0.0000000000     0.2853376169
    2      C      -1.1922644022     0.0000000000    -1.0939323325
    3      C       0.0000000000     0.0000000000    -1.8191186332
    4      C       1.1922644022    -0.0000000000    -1.0939323325
    5      C       1.2054461359    -0.0000000000     0.2853376169
    6      C       0.0000000000     0.0000000000     1.0766024045
    7      O       0.0000000000     0.0000000000     2.3331965278
    8      H      -2.1459568243     0.0000000000     0.8267777040
    9      H      -2.1387806877     0.0000000000    -1.6293962060
   10      H       0.0000000000     0.0000000000    -2.9020958466
   11      H       2.1387806877    -0.0000000000    -1.6293962060
   12      H       2.1459568243    -0.0000000000     0.8267777040
 ----------------------------------------------------------------

   14    -306.8902078560      4.84e-09  Convergence criterion met
 Total energy in the final basis set =     -306.8902078560

             Orbital Energies (a.u.) and Symmetries
 --------------------------------------------------------------

 Alpha MOs, Restricted
 -- Occupied --
-18.977 -10.141 -10.114 -10.114 -10.096 -10.086 -10.086  -0.881
  1 A1    2 A1    3 A1    1 B1    4 A1    2 B1    5 A1    6 A1
 -0.756  -0.660  -0.625  -0.511  -0.490  -0.416  -0.357  -0.357
  7 A1    3 B1    8 A1    4 B1    9 A1   10 A1    5 B1   11 A1
 -0.322  -0.298  -0.288  -0.255  -0.244  -0.216  -0.154  -0.109
  6 B1   12 A1    1 B2   13 A1    7 B1    2 B2    1 A2    8 B1
 -0.069
  3 B2

 Beta MOs, Restricted
 -- Occupied --
-18.977 -10.141 -10.114 -10.114 -10.096 -10.086 -10.086  -0.881
  1 A1    2 A1    3 A1    1 B1    4 A1    2 B1    5 A1    6 A1
 -0.756  -0.660  -0.625  -0.511  -0.490  -0.416  -0.357  -0.357
  7 A1    3 B1    8 A1    4 B1    9 A1   10 A1    5 B1   11 A1
 -0.322  -0.298  -0.288  -0.255  -0.244  -0.216  -0.154  -0.109
  6 B1   12 A1    1 B2   13 A1    7 B1    2 B2    1 A2    8 B1
 -0.069
  3 B2

          Ground-State Mulliken Net Atomic Charges

     Atom                 Charge (a.u.)
  ----------------------------------------
      1 C                    -0.257232
      2 C                    -0.125203
      3 C                    -0.241004
      4 C                    -0.125203
      5 C                    -0.257232
      6 C                     0.196693
      7 O                    -0.523755
      8 H                     0.065394
      9 H                     0.068230
     10 H                     0.065688
     11 H                     0.068230
     12 H                     0.065394
  ----------------------------------------
  Sum of atomic charges =    -1.000000

                    Cartesian Multipole Moments
 -----------------------------------------------------------------
    Charge (ESU x 10^10)
                -4.8032
    Dipole Moment (Debye)
         X      -0.0000      Y      -0.0000      Z      -4.1887
       Tot       4.1887
    Quadrupole Moments (Debye-Ang)
        XX     -45.1810     XY      -0.0000     YY     -46.9546
        XZ      -0.0000     YZ      -0.0000     ZZ     -62.7514

 Frequency:       197.75                 440.07                 453.34
 Force Cnst:      0.1185                 0.3834                 0.7099
 Red. Mass:       5.1440                 3.3599                 5.8624
 IR Intens:        1.546                  0.000                  1.033
 Frequency:       522.76                 539.26                 619.62
 Force Cnst:      0.3792                 1.3853                 1.4715
 Red. Mass:       2.3554                 8.0852                 6.5051
 IR Intens:       18.462                  7.537                  0.400
 Frequency:       706.58                 725.97                 833.16
 Force Cnst:      0.3538                 0.8216                 2.1193
 Red. Mass:       1.2028                 2.6458                 5.1819
 IR Intens:       48.393                  1.111                  0.007
 Frequency:       837.03                 881.11                 974.37
 Force Cnst:      0.5123                 1.0958                 0.6601
 Red. Mass:       1.2411                 2.3955                 1.1800
 IR Intens:        0.000                 39.062                  0.014
 Frequency:       981.09                 989.95                1039.74
 Force Cnst:      0.7344                 2.8452                 1.4408
 Red. Mass:       1.2950                 4.9276                 2.2620
 IR Intens:        0.000                 39.351                 12.824
 Frequency:      1084.77                1163.45                1185.08
 Force Cnst:      1.0826                 0.8518                 0.9419
 Red. Mass:       1.5615                 1.0681                 1.1384
 IR Intens:        4.378                 10.329                 27.099
 Frequency:      1252.68                1351.89                1431.54
 Force Cnst:      2.7872                 1.8269                 2.6879
 Red. Mass:       3.0147                 1.6966                 2.2261
 IR Intens:        8.223                 19.771                 25.381
 Frequency:      1500.26                1575.50                1595.82
 Force Cnst:      3.8700                 7.1460                 7.6313
 Red. Mass:       2.9183                 4.8863                 5.0860
 IR Intens:       25.793                 35.412                163.313
 Frequency:      1667.54                3114.41                3117.36
 Force Cnst:     10.6166                 6.1868                 6.2248
 Red. Mass:       6.4801                 1.0826                 1.0872
 IR Intens:      476.246                 37.799                 51.470
 Frequency:      3157.37                3159.27                3181.70
 Force Cnst:      6.4185                 6.4107                 6.5300
 Red. Mass:       1.0928                 1.0901                 1.0948
 IR Intens:      129.358                 35.189                 48.898

 STANDARD THERMODYNAMIC QUANTITIES AT   298.15 K  AND     1.00 ATM

   This Molecule has  0 Imaginary Frequencies
   Zero point vibrational energy:       57.584 kcal/mol

   Atom    1 Element C  Has Mass   12.00000
   Atom    2 Element C  Has Mass   12.00000
   Atom    3 Element C  Has Mass   12.00000
   Atom    4 Element C  Has Mass   12.00000
   Atom    5 Element C  Has Mass   12.00000
   Atom    6 Element C  Has Mass   12.00000
   Atom    7 Element O  Has Mass   15.99491
   Atom    8 Element H  Has Mass    1.00783
   Atom    9 Element H  Has Mass    1.00783
   Atom   10 Element H  Has Mass    1.00783
   Atom   11 Element H  Has Mass    1.00783
   Atom   12 Element H  Has Mass    1.00783
   Molecular Mass:    93.034060 amu
   Principal axes and moments of inertia in amu*Bohr^2:
                             1           2           3
    Eigenvalues --      312.44336   665.54096   977.98433
          X               0.00000     1.00000     0.00000
          Y               0.00000     0.00000     1.00000
          Z               1.00000     0.00000     0.00000
   Rotational Symmetry Number is   2
   The Molecule is an Asymmetric Top
   Translational Enthalpy:        0.889 kcal/mol
   Rotational Enthalpy:           0.889 kcal/mol
   Vibrational Enthalpy:         59.038 kcal/mol
   gas constant (RT):             0.592 kcal/mol
   Translational Entropy:        39.503  cal/mol.K
   Rotational Entropy:           25.433  cal/mol.K
   Vibrational Entropy:           7.085  cal/mol.K

   Total Enthalpy:               61.408 kcal/mol
   Total Entropy:                72.021  cal/mol.K

 Total job time:  2070.24s(wall), 3692.37s(cpu)
        *  Thank you very much for using Q-Chem.  Have a nice day.  *
