 Q-Chem 5.3, Q-Chem, Inc., Pleasanton, CA (2020)
 Q-Chem 5.3.1 for Intel X86 EM64T Linux

User input:
--------------------------------------------------------------
$molecule
0 2
C        -1.2342120895    0.0000000000    0.2805209563
C        -1.2184509216    0.0000000000   -1.0867497773
C         0.0000000000    0.0000000000   -1.7795411200
C         1.2184509216    0.0000000000   -1.0867497773
C         1.2342120895    0.0000000000    0.2805209563
C         0.0000000000    0.0000000000    1.0373822370
O         0.0000000000    0.0000000000    2.2797273285
H        -2.1571619201    0.0000000000    0.8434906939
H        -2.1462805556    0.0000000000   -1.6424579331
H         0.0000000000    0.0000000000   -2.8610183077
H         2.1462805556    0.0000000000   -1.6424579331
H         2.1571619201    0.0000000000    0.8434906939
$end

$rem
BASIS  =  cc-pVTZ
GUI  =  2
JOB_TYPE  =  Frequency
METHOD  =  wB97XD
SCF_CONVERGENCE  =  8
$end
--------------------------------------------------------------

             Standard Nuclear Orientation (Angstroms)
    I     Atom           X                Y                Z
 ----------------------------------------------------------------
    1      C      -1.2342120895    -0.0000000000     0.2876400034
    2      C      -1.2184509216    -0.0000000000    -1.0796307302
    3      C       0.0000000000    -0.0000000000    -1.7724220729
    4      C       1.2184509216    -0.0000000000    -1.0796307302
    5      C       1.2342120895     0.0000000000     0.2876400034
    6      C       0.0000000000     0.0000000000     1.0445012841
    7      O       0.0000000000     0.0000000000     2.2868463756
    8      H      -2.1571619201    -0.0000000000     0.8506097410
    9      H      -2.1462805556    -0.0000000000    -1.6353388860
   10      H       0.0000000000    -0.0000000000    -2.8538992606
   11      H       2.1462805556    -0.0000000000    -1.6353388860
   12      H       2.1571619201     0.0000000000     0.8506097410
 ----------------------------------------------------------------

   16    -306.8181229534      7.77e-09  Convergence criterion met
 Total energy in the final basis set =     -306.8181229534

             Orbital Energies (a.u.) and Symmetries
 --------------------------------------------------------------

 Alpha MOs, Unrestricted
 -- Occupied --
-19.245 -10.362 -10.327 -10.313 -10.313 -10.312 -10.312  -1.142
  1 A1    2 A1    3 A1    1 B1    4 A1    5 A1    2 B1    6 A1
 -0.974  -0.876  -0.843  -0.724  -0.700  -0.624  -0.576  -0.564
  7 A1    3 B1    8 A1    4 B1    9 A1   10 A1    5 B1   11 A1
 -0.533  -0.522  -0.520  -0.470  -0.459  -0.451  -0.368  -0.349
  6 B1    1 B2   12 A1   13 A1    7 B1    2 B2    1 A2    8 B1
 -0.312
  3 B2

 Beta MOs, Unrestricted
 -- Occupied --
-19.235 -10.364 -10.323 -10.314 -10.314 -10.310 -10.310  -1.121
  1 A1    2 A1    3 A1    1 B1    4 A1    2 B1    5 A1    6 A1
 -0.966  -0.872  -0.827  -0.720  -0.696  -0.619  -0.573  -0.559
  7 A1    3 B1    8 A1    4 B1    9 A1   10 A1    5 B1   11 A1
 -0.532  -0.512  -0.493  -0.465  -0.456  -0.406  -0.356  -0.337
  6 B1   12 A1    1 B2   13 A1    7 B1    2 B2    1 A2    8 B1

          Ground-State Mulliken Net Atomic Charges

     Atom                 Charge (a.u.)    Spin (a.u.)
  --------------------------------------------------------
      1 C                    -0.123291       0.289912
      2 C                    -0.119469      -0.133895
      3 C                    -0.070583       0.370126
      4 C                    -0.119469      -0.133895
      5 C                    -0.123291       0.289912
      6 C                     0.206170      -0.083572
      7 O                    -0.298430       0.414632
      8 H                     0.134578      -0.006193
      9 H                     0.126528       0.004114
     10 H                     0.126150      -0.009061
     11 H                     0.126528       0.004114
     12 H                     0.134578      -0.006193
  --------------------------------------------------------
  Sum of atomic charges =    -0.000000

                    Cartesian Multipole Moments
 -----------------------------------------------------------------
    Charge (ESU x 10^10)
                -0.0000
    Dipole Moment (Debye)
         X      -0.0000      Y      -0.0000      Z      -3.7964
       Tot       3.7964
    Quadrupole Moments (Debye-Ang)
        XX     -34.2041     XY       0.0000     YY     -42.2179
        XZ      -0.0000     YZ       0.0000     ZZ     -44.1551

 Frequency:       190.04                 389.01                 452.52
 Force Cnst:      0.1063                 0.2789                 0.7163
 Red. Mass:       4.9975                 3.1281                 5.9370
 IR Intens:        2.533                  0.000                  4.767
 Frequency:       496.67                 534.88                 599.87
 Force Cnst:      0.4385                 1.3558                 1.4486
 Red. Mass:       3.0173                 8.0435                 6.8326
 IR Intens:        0.157                  2.283                  0.665
 Frequency:       675.11                 811.61                 822.26
 Force Cnst:      0.4007                 2.0138                 0.8424
 Red. Mass:       1.4920                 5.1888                 2.1148
 IR Intens:       39.605                  1.636                 38.906
 Frequency:       846.36                 957.49                 993.09
 Force Cnst:      0.5250                 0.8302                 3.1654
 Red. Mass:       1.2439                 1.5371                 5.4475
 IR Intens:        0.000                 13.900                  2.184
 Frequency:      1024.57                1036.84                1045.11
 Force Cnst:      1.4654                 0.8362                 0.8403
 Red. Mass:       2.3693                 1.3201                 1.3058
 IR Intens:        0.117                  0.000                  0.313
 Frequency:      1108.31                1171.80                1184.15
 Force Cnst:      1.1039                 1.0061                 1.0070
 Red. Mass:       1.5253                 1.2436                 1.2189
 IR Intens:        9.325                  2.351                  0.658
 Frequency:      1290.98                1344.35                1452.50
 Force Cnst:      2.7648                 2.2146                 2.5810
 Red. Mass:       2.8156                 2.0797                 2.0764
 IR Intens:        9.139                  5.448                  0.851
 Frequency:      1464.69                1522.44                1571.43
 Force Cnst:      2.7284                 6.1547                 4.8900
 Red. Mass:       2.1586                 4.5069                 3.3610
 IR Intens:        3.057                 16.739                  4.766
 Frequency:      1615.35                3195.27                3203.09
 Force Cnst:      7.6629                 6.5324                 6.5833
 Red. Mass:       4.9844                 1.0859                 1.0891
 IR Intens:       51.136                  0.119                  6.052
 Frequency:      3215.16                3223.64                3227.16
 Force Cnst:      6.6493                 6.7056                 6.7380
 Red. Mass:       1.0918                 1.0952                 1.0981
 IR Intens:       11.855                  7.881                  1.651

 STANDARD THERMODYNAMIC QUANTITIES AT   298.15 K  AND     1.00 ATM

   This Molecule has  0 Imaginary Frequencies
   Zero point vibrational energy:       58.135 kcal/mol

   Atom    1 Element C  Has Mass   12.00000
   Atom    2 Element C  Has Mass   12.00000
   Atom    3 Element C  Has Mass   12.00000
   Atom    4 Element C  Has Mass   12.00000
   Atom    5 Element C  Has Mass   12.00000
   Atom    6 Element C  Has Mass   12.00000
   Atom    7 Element O  Has Mass   15.99491
   Atom    8 Element H  Has Mass    1.00783
   Atom    9 Element H  Has Mass    1.00783
   Atom   10 Element H  Has Mass    1.00783
   Atom   11 Element H  Has Mass    1.00783
   Atom   12 Element H  Has Mass    1.00783
   Molecular Mass:    93.034060 amu
   Principal axes and moments of inertia in amu*Bohr^2:
                             1           2           3
    Eigenvalues --      324.44694   640.11077   964.55771
          X               0.00000     1.00000     0.00000
          Y               0.00000    -0.00000     1.00000
          Z               1.00000     0.00000     0.00000
   Rotational Symmetry Number is   2
   The Molecule is an Asymmetric Top
   Translational Enthalpy:        0.889 kcal/mol
   Rotational Enthalpy:           0.889 kcal/mol
   Vibrational Enthalpy:         59.617 kcal/mol
   gas constant (RT):             0.592 kcal/mol
   Translational Entropy:        39.503  cal/mol.K
   Rotational Entropy:           25.418  cal/mol.K
   Vibrational Entropy:           7.317  cal/mol.K

   Total Enthalpy:               61.987 kcal/mol
   Total Entropy:                72.238  cal/mol.K

 Total job time:  1466.78s(wall), 12254.18s(cpu)
        *  Thank you very much for using Q-Chem.  Have a nice day.  *
